 Gaussian 16, Revision A.03,
 Gaussian 16:  ES64L-G16RevA.03 25-Dec-2016

 ----------------------------------------------------------------------
 # cbs-qb3 scf=(xqc,maxcycle=999) geom=connectivity opt=maxcycle=999 io
 p(1/152=999,1/7=10) freq
 ----------------------------------------------------------------------

 ---
 NH3
 ---
 Symbolic Z-matrix:
 Charge =  0 Multiplicity = 1

 SCF Done:  E(RB3LYP) =  -56.5752202696     A.U. after    9 cycles
 SCF Done:  E(RB3LYP) =  -56.5758939533     A.U. after    9 cycles
 SCF Done:  E(RB3LYP) =  -56.5760350632     A.U. after    9 cycles
 SCF Done:  E(RB3LYP) =  -56.5760358396     A.U. after    6 cycles
 SCF Done:  E(RB3LYP) =  -56.5760358440     A.U. after    5 cycles
 Optimization completed.
    -- Stationary point found.
 Normal termination of Gaussian 16 at Mon Apr 17 14:39:57 2023.

 --------------------------------------------------------------
 #N Geom=AllCheck Guess=TCheck SCRF=Check Test B3LYP/CBSB7 Freq
 --------------------------------------------------------------

 Structure from the checkpoint file:  "/ihome/gmpourmpakis/ant212/NH3.chk"
 ---
 NH3
 ---
 Charge =  0 Multiplicity = 1

 SCF Done:  E(RB3LYP) =  -56.5760358440     A.U. after    1 cycles

  Exact polarizability:  10.325  -0.000  10.325   0.000   0.000   8.068
 Approx polarizability:  12.732  -0.000  12.732   0.000   0.000   9.409

                      1                      2                      3
                     A1                      E                      E
 Frequencies --   1071.5778              1681.8357              1681.8357
 Red. masses --      1.1811                 1.0658                 1.0658
 Frc consts  --      0.7991                 1.7762                 1.7762
 IR Inten    --    168.2801                18.8168                18.8169

                      4                      5                      6
                     A1                      E                      E
 Frequencies --   3460.9317              3579.9882              3579.9883
 Red. masses --      1.0264                 1.0890                 1.0890
 Frc consts  --      7.2436                 8.2234                 8.2234
 IR Inten    --      0.7550                 0.0780                 0.0780

 - Thermochemistry -
 -------------------
 Temperature   298.150 Kelvin.  Pressure   1.00000 Atm.
 Atom     1 has atomic number  7 and mass  14.00307

 Molecular mass:    17.02655 amu.
 Principal axes and moments of inertia in atomic units:
                           1         2         3
     Eigenvalues --     6.08928   6.08928   9.53077
           X           -0.52933   0.84842   0.00000
           Y            0.84842   0.52933   0.00000
           Z           -0.00000  -0.00000   1.00000
 This molecule is an oblate symmetric top.
 Rotational symmetry number  3.
 Rotational temperatures (Kelvin)     14.22401    14.22401     9.08782
 Rotational constants (GHZ):         296.38019   296.38019   189.35946
 Zero-point vibrational energy      90055.8 (Joules/Mol)
                                   21.52386 (Kcal/Mol)
 Vibrational temperatures:   1541.76  2419.79  2419.79  4979.51  5150.80
          (Kelvin)           5150.80

 Zero-point correction=                           0.034300 (Hartree/Particle)
 Thermal correction to Energy=                    0.037165
 Thermal correction to Enthalpy=                  0.038110
 Thermal correction to Gibbs Free Energy=         0.016267
 Sum of electronic and zero-point Energies=            -56.541735
 Sum of electronic and thermal Energies=               -56.538870
 Sum of electronic and thermal Enthalpies=             -56.537926
 Sum of electronic and thermal Free Energies=          -56.559769

                     E (Thermal)             CV                S
                      KCal/Mol        Cal/Mol-Kelvin    Cal/Mol-Kelvin
 Total                   23.322              6.345             45.971
 Electronic               0.000              0.000              0.000
 Translational            0.889              2.981             34.441
 Rotational               0.889              2.981             11.450
 Vibrational             21.544              0.384              0.081

 Optimization completed.
    -- Stationary point found.
 Normal termination of Gaussian 16 at Mon Apr 17 14:39:59 2023.

 ----------------------------------------------------------------
 #N Geom=AllCheck Guess=TCheck SCRF=Check Test CCSD(T)/6-31+G(d')
 ----------------------------------------------------------------

 Structure from the checkpoint file:  "/ihome/gmpourmpakis/ant212/NH3.chk"
 ---
 NH3
 ---
 Charge =  0 Multiplicity = 1

 SCF Done:  E(RHF) =  -56.1882045095     A.U. after   10 cycles
 E2 =    -0.1738324228D+00 EUMP2 =    -0.56362036932328D+02
 CCSD(T)= -0.56379782992D+02
 -56.3750526\MP4SDQ=-56.3761512\CCSD=-56.3767119\CCSD(T)=-56.379783\RMS
 Normal termination of Gaussian 16 at Mon Apr 17 14:40:01 2023.

 ----------------------------------------------------------
 #N Geom=AllCheck Guess=TCheck SCRF=Check Test MP4SDQ/CBSB4
 ----------------------------------------------------------

 Structure from the checkpoint file:  "/ihome/gmpourmpakis/ant212/NH3.chk"
 ---
 NH3
 ---
 Charge =  0 Multiplicity = 1

 SCF Done:  E(RHF) =  -56.2006907088     A.U. after   10 cycles
 E2 =    -0.1940602497D+00 EUMP2 =    -0.56394750958509D+02
 Normal termination of Gaussian 16 at Mon Apr 17 14:40:02 2023.

 ----------------------------------------------------------------------
 #N Geom=AllCheck Guess=TCheck SCRF=Check Test MP2/CBSB3 CBSExtrap=(NMi
 n=10,MinPop)
 ----------------------------------------------------------------------

 Structure from the checkpoint file:  "/ihome/gmpourmpakis/ant212/NH3.chk"
 ---
 NH3
 ---
 Charge =  0 Multiplicity = 1

                         Standard orientation:
 ---------------------------------------------------------------------
 Center     Atomic      Atomic             Coordinates (Angstroms)
 Number     Number       Type             X           Y           Z
 ---------------------------------------------------------------------
      1          7           0        0.000000    0.000000    0.115837
      2          1           0        0.000000    0.939533   -0.270286
      3          1           0       -0.813659   -0.469766   -0.270286
      4          1           0        0.813659   -0.469766   -0.270286
 ---------------------------------------------------------------------

 SCF Done:  E(RHF) =  -56.2177477979     A.U. after   10 cycles
 E2 =    -0.2304611994D+00 EUMP2 =    -0.56448208997299D+02
 E2(CBS)=      -0.253751 CBS-Int=       0.007976 OIii=       2.196243

 The electronic state is 1-A1.
 Alpha  occ. eigenvalues --  -15.54152  -1.14146  -0.62737  -0.62737  -0.43019
 Alpha virt. eigenvalues --    0.04310   0.07302   0.07302   0.17861   0.21734
 Alpha virt. eigenvalues --    0.21734   0.24139   0.30237   0.30237   0.31549
 Alpha virt. eigenvalues --    0.63769   0.63769   0.73396   0.73396   0.79391

 Mulliken charges:
               1
     1  N   -0.459444
     2  H    0.153148
     3  H    0.153148
     4  H    0.153148
 Sum of Mulliken charges =  -0.00000

 Dipole moment (field-independent basis, Debye):
    X=             -0.0000    Y=              0.0000    Z=             -1.6941  Tot=              1.6941
 Quadrupole moment (field-independent basis, Debye-Ang):
   XX=             -6.2219   YY=             -6.2219   ZZ=             -9.3073
   XY=             -0.0000   XZ=              0.0000   YZ=              0.0000

 Normal termination of Gaussian 16 at Mon Apr 17 14:40:04 2023.
